 variables= "x","t","u"
 zone i=          51  j=          26  datapacking=point
   0.0000000000000000        0.0000000000000000       0.14999999999999999     
   2.0000000000000000E-002   0.0000000000000000        6.2815759390963635E-002
   4.0000000000000001E-002   0.0000000000000000       0.12538341413963497     
   5.9999999999999998E-002   0.0000000000000000       0.18745583954751482     
   8.0000000000000002E-002   0.0000000000000000       0.24878786693318714     
  0.10000000000000001        0.0000000000000000       0.30913725197988923     
  0.12000000000000000        0.0000000000000000       0.36826563153266229     
  0.14000000000000001        0.0000000000000000       0.42593946506599967     
  0.16000000000000000        0.0000000000000000       0.48193095710346107     
  0.17999999999999999        0.0000000000000000       0.53601895694595370     
  0.20000000000000001        0.0000000000000000       0.58798983215500444     
  0.22000000000000000        0.0000000000000000       0.63763831234101076     
  0.23999999999999999        0.0000000000000000       0.68476829992374233     
  0.26000000000000001        0.0000000000000000       0.72919364466281644     
  0.28000000000000003        0.0000000000000000       0.77073887889896942     
  0.29999999999999999        0.0000000000000000       0.80923991060212686     
  0.32000000000000001        0.0000000000000000       0.84454467148892820     
  0.34000000000000002        0.0000000000000000       0.87651371764982000     
  0.35999999999999999        0.0000000000000000       0.90502078031341304     
  0.38000000000000000        0.0000000000000000       0.92995326457273608     
  0.40000000000000002        0.0000000000000000       0.95121269410355802     
  0.41999999999999998        0.0000000000000000       0.96871510011826523     
  0.44000000000000000        0.0000000000000000       0.98239135301903646     
  0.46000000000000002        0.0000000000000000       0.99218743544037702     
  0.47999999999999998        0.0000000000000000       0.99806465560257152     
  0.50000000000000000        0.0000000000000000       0.99999980013336820     
  0.52000000000000002        0.0000000000000000       0.99798522575429305     
  0.54000000000000004        0.0000000000000000       0.99202888946945644     
  0.56000000000000005        0.0000000000000000       0.98215431713761847     
  0.57999999999999996        0.0000000000000000       0.96840051055164011     
  0.59999999999999998        0.0000000000000000       0.95082179339233419     
  0.62000000000000000        0.0000000000000000       0.92948759666515313     
  0.64000000000000001        0.0000000000000000       0.90448218446717876     
  0.66000000000000003        0.0000000000000000       0.87590432116755834     
  0.68000000000000005        0.0000000000000000       0.84386688131592980     
  0.70000000000000007        0.0000000000000000       0.80849640381959009     
  0.71999999999999997        0.0000000000000000       0.76993259215027976     
  0.73999999999999999        0.0000000000000000       0.72832776255462872     
  0.76000000000000001        0.0000000000000000       0.68384624244767644     
  0.78000000000000003        0.0000000000000000       0.63666372136564331     
  0.80000000000000004        0.0000000000000000       0.58696655704150991     
  0.82000000000000006        0.0000000000000000       0.53495103934420540     
  0.83999999999999997        0.0000000000000000       0.48082261498864864     
  0.85999999999999999        0.0000000000000000       0.42479507607880668     
  0.88000000000000000        0.0000000000000000       0.36708971568881560     
  0.90000000000000002        0.0000000000000000       0.30793445381736151     
  0.92000000000000004        0.0000000000000000       0.24756293716757558     
  0.94000000000000006        0.0000000000000000       0.18621361630804453     
  0.95999999999999996        0.0000000000000000       0.12412880385990661     
  0.97999999999999998        0.0000000000000000        6.1553717429913148E-002
   1.0000000000000000        0.0000000000000000       0.14999999999999999     
   0.0000000000000000        4.0000000000000001E-003  0.14999999999999999     
   2.0000000000000000E-002   4.0000000000000001E-003  0.16990556617253294     
   4.0000000000000001E-002   4.0000000000000001E-003  0.20052011302322323     
   5.9999999999999998E-002   4.0000000000000001E-003  0.23864832976227202     
   8.0000000000000002E-002   4.0000000000000001E-003  0.28189579552279659     
  0.10000000000000001        4.0000000000000001E-003  0.32845405414228213     
  0.12000000000000000        4.0000000000000001E-003  0.37694399297800668     
  0.14000000000000001        4.0000000000000001E-003  0.42630176795826596     
  0.16000000000000000        4.0000000000000001E-003  0.47569577322775186     
  0.17999999999999999        4.0000000000000001E-003  0.52446626010966690     
  0.20000000000000001        4.0000000000000001E-003  0.57208147730795300     
  0.22000000000000000        4.0000000000000001E-003  0.61810585902153370     
  0.23999999999999999        4.0000000000000001E-003  0.66217699540316766     
  0.26000000000000001        4.0000000000000001E-003  0.70398900133274356     
  0.28000000000000003        4.0000000000000001E-003  0.74328054292931256     
  0.29999999999999999        4.0000000000000001E-003  0.77982625092891522     
  0.32000000000000001        4.0000000000000001E-003  0.81343059296119724     
  0.34000000000000002        4.0000000000000001E-003  0.84392352714070606     
  0.35999999999999999        4.0000000000000001E-003  0.87115744226930325     
  0.38000000000000000        4.0000000000000001E-003  0.89500502359349010     
  0.40000000000000002        4.0000000000000001E-003  0.91535778081975183     
  0.41999999999999998        4.0000000000000001E-003  0.93212504671763319     
  0.44000000000000000        4.0000000000000001E-003  0.94523330727545096     
  0.46000000000000002        4.0000000000000001E-003  0.95462576325891058     
  0.47999999999999998        4.0000000000000001E-003  0.96026205202422388     
  0.50000000000000000        4.0000000000000001E-003  0.96211808043170199     
  0.52000000000000002        4.0000000000000001E-003  0.96018593686901366     
  0.54000000000000004        4.0000000000000001E-003  0.95447386441779747     
  0.56000000000000005        4.0000000000000001E-003  0.94500628946141552     
  0.57999999999999996        4.0000000000000001E-003  0.93182391173741308     
  0.59999999999999998        4.0000000000000001E-003  0.91498387413198790     
  0.62000000000000000        4.0000000000000001E-003  0.89456004460052818     
  0.64000000000000001        4.0000000000000001E-003  0.87064345986260616     
  0.66000000000000003        4.0000000000000001E-003  0.84334300266422679     
  0.68000000000000005        4.0000000000000001E-003  0.81278641361551440     
  0.70000000000000007        4.0000000000000001E-003  0.77912177779676006     
  0.71999999999999997        4.0000000000000001E-003  0.74251967937572294     
  0.73999999999999999        4.0000000000000001E-003  0.70317628967723023     
  0.76000000000000001        4.0000000000000001E-003  0.66131775269099780     
  0.78000000000000003        4.0000000000000001E-003  0.61720636672909712     
  0.80000000000000004        4.0000000000000001E-003  0.57114924530354205     
  0.82000000000000006        4.0000000000000001E-003  0.52351039270419020     
  0.83999999999999997        4.0000000000000001E-003  0.47472747544083671     
  0.85999999999999999        4.0000000000000001E-003  0.42533504422270207     
  0.88000000000000000        4.0000000000000001E-003  0.37599660981895711     
  0.90000000000000002        4.0000000000000001E-003  0.32754886482822632     
  0.92000000000000004        4.0000000000000001E-003  0.28106256093858195     
  0.94000000000000006        4.0000000000000001E-003  0.23792621942603814     
  0.95999999999999996        4.0000000000000001E-003  0.19996113822529377     
  0.97999999999999998        4.0000000000000001E-003  0.16957929046108811     
   1.0000000000000000        4.0000000000000001E-003  0.14999999999999999     
   0.0000000000000000        8.0000000000000002E-003  0.14999999999999999     
   2.0000000000000000E-002   8.0000000000000002E-003  0.18470694963593243     
   4.0000000000000001E-002   8.0000000000000002E-003  0.22089403761820481     
   5.9999999999999998E-002   8.0000000000000002E-003  0.25911851805997527     
   8.0000000000000002E-002   8.0000000000000002E-003  0.29939001733151627     
  0.10000000000000001        8.0000000000000002E-003  0.34141093878392886     
  0.12000000000000000        8.0000000000000002E-003  0.38472754870050641     
  0.14000000000000001        8.0000000000000002E-003  0.42882251418933365     
  0.16000000000000000        8.0000000000000002E-003  0.47316955430126795     
  0.17999999999999999        8.0000000000000002E-003  0.51726397252055334     
  0.20000000000000001        8.0000000000000002E-003  0.56063816198092808     
  0.22000000000000000        8.0000000000000002E-003  0.60286801990860006     
  0.23999999999999999        8.0000000000000002E-003  0.64357409392497889     
  0.26000000000000001        8.0000000000000002E-003  0.68241987779353852     
  0.28000000000000003        8.0000000000000002E-003  0.71910874930817792     
  0.29999999999999999        8.0000000000000002E-003  0.75338044146070382     
  0.32000000000000001        8.0000000000000002E-003  0.78500755266640820     
  0.34000000000000002        8.0000000000000002E-003  0.81379235984263443     
  0.35999999999999999        8.0000000000000002E-003  0.83956405028905290     
  0.38000000000000000        8.0000000000000002E-003  0.86217640153744668     
  0.40000000000000002        8.0000000000000002E-003  0.88150589058023576     
  0.41999999999999998        8.0000000000000002E-003  0.89745019059907327     
  0.44000000000000000        8.0000000000000002E-003  0.90992700500605506     
  0.46000000000000002        8.0000000000000002E-003  0.91887318918609751     
  0.47999999999999998        8.0000000000000002E-003  0.92424411595885814     
  0.50000000000000000        8.0000000000000002E-003  0.92601324912508254     
  0.52000000000000002        8.0000000000000002E-003  0.92417189916064513     
  0.54000000000000004        8.0000000000000002E-003  0.91872914542537076     
  0.56000000000000005        8.0000000000000002E-003  0.90971191979085386     
  0.57999999999999996        8.0000000000000002E-003  0.89716525718928042     
  0.59999999999999998        8.0000000000000002E-003  0.88115272913289377     
  0.62000000000000000        8.0000000000000002E-003  0.86175708657659778     
  0.64000000000000001        8.0000000000000002E-003  0.83908114821790925     
  0.66000000000000003        8.0000000000000002E-003  0.81324897869475088     
  0.68000000000000005        8.0000000000000002E-003  0.78440740677464460     
  0.70000000000000007        8.0000000000000002E-003  0.75272793417045147     
  0.71999999999999997        8.0000000000000002E-003  0.71840907720362734     
  0.73999999999999999        8.0000000000000002E-003  0.68167916001959361     
  0.76000000000000001        8.0000000000000002E-003  0.64279952986979672     
  0.78000000000000003        8.0000000000000002E-003  0.60206807743787927     
  0.80000000000000004        8.0000000000000002E-003  0.55982279607684027     
  0.82000000000000006        8.0000000000000002E-003  0.51644486979313098     
  0.83999999999999997        8.0000000000000002E-003  0.47236039121831608     
  0.85999999999999999        8.0000000000000002E-003  0.42803920422124880     
  0.88000000000000000        8.0000000000000002E-003  0.38398843322403631     
  0.90000000000000002        8.0000000000000002E-003  0.34073684456733178     
  0.92000000000000004        8.0000000000000002E-003  0.29880405388453779     
  0.94000000000000006        8.0000000000000002E-003  0.25864541249633927     
  0.95999999999999996        8.0000000000000002E-003  0.22055869041517095     
  0.97999999999999998        8.0000000000000002E-003  0.18453172355299036     
   1.0000000000000000        8.0000000000000002E-003  0.14999999999999999     
   0.0000000000000000        1.2000000000000000E-002  0.14999999999999999     
   2.0000000000000000E-002   1.2000000000000000E-002  0.18821217884810426     
   4.0000000000000001E-002   1.2000000000000000E-002  0.22677488061742565     
   5.9999999999999998E-002   1.2000000000000000E-002  0.26592566668666912     
   8.0000000000000002E-002   1.2000000000000000E-002  0.30575716761858207     
  0.10000000000000001        1.2000000000000000E-002  0.34622538357920135     
  0.12000000000000000        1.2000000000000000E-002  0.38717504401934810     
  0.14000000000000001        1.2000000000000000E-002  0.42836945399137860     
  0.16000000000000000        1.2000000000000000E-002  0.46951855794361413     
  0.17999999999999999        1.2000000000000000E-002  0.51030256226008419     
  0.20000000000000001        1.2000000000000000E-002  0.55039042555050732     
  0.22000000000000000        1.2000000000000000E-002  0.58945351519788780     
  0.23999999999999999        1.2000000000000000E-002  0.62717515437419702     
  0.26000000000000001        1.2000000000000000E-002  0.66325689959542866     
  0.28000000000000003        1.2000000000000000E-002  0.69742234699684913     
  0.29999999999999999        1.2000000000000000E-002  0.72941915416713665     
  0.32000000000000001        1.2000000000000000E-002  0.75901983260806816     
  0.34000000000000002        1.2000000000000000E-002  0.78602173904316519     
  0.35999999999999999        1.2000000000000000E-002  0.81024658339831501     
  0.38000000000000000        1.2000000000000000E-002  0.83153968106439091     
  0.40000000000000002        1.2000000000000000E-002  0.84976910668316197     
  0.41999999999999998        1.2000000000000000E-002  0.86482485391222463     
  0.44000000000000000        1.2000000000000000E-002  0.87661806747260340     
  0.46000000000000002        1.2000000000000000E-002  0.88508038727963656     
  0.47999999999999998        1.2000000000000000E-002  0.89016342689602368     
  0.50000000000000000        1.2000000000000000E-002  0.89183839760612782     
  0.52000000000000002        1.2000000000000000E-002  0.89009588316433652     
  0.54000000000000004        1.2000000000000000E-002  0.88494576712291417     
  0.56000000000000005        1.2000000000000000E-002  0.87641731325124650     
  0.57999999999999996        1.2000000000000000E-002  0.86455939872561749     
  0.59999999999999998        1.2000000000000000E-002  0.84944089835362224     
  0.62000000000000000        1.2000000000000000E-002  0.83115121490370059     
  0.64000000000000001        1.2000000000000000E-002  0.80980094428648919     
  0.66000000000000003        1.2000000000000000E-002  0.78552265327613524     
  0.68000000000000005        1.2000000000000000E-002  0.75847172972391974     
  0.70000000000000007        1.2000000000000000E-002  0.72882723846663178     
  0.71999999999999997        1.2000000000000000E-002  0.69679267763896180     
  0.73999999999999999        1.2000000000000000E-002  0.66259647685482559     
  0.76000000000000001        1.2000000000000000E-002  0.62649200775421221     
  0.78000000000000003        1.2000000000000000E-002  0.58875678644204044     
  0.80000000000000004        1.2000000000000000E-002  0.54969043603028511     
  0.82000000000000006        1.2000000000000000E-002  0.50961084961387415     
  0.83999999999999997        1.2000000000000000E-002  0.46884786117953747     
  0.85999999999999999        1.2000000000000000E-002  0.42773361974132273     
  0.88000000000000000        1.2000000000000000E-002  0.38658881985511578     
  0.90000000000000002        1.2000000000000000E-002  0.34570405863201670     
  0.92000000000000004        1.2000000000000000E-002  0.30531601881538595     
  0.94000000000000006        1.2000000000000000E-002  0.26557917549184001     
  0.95999999999999996        1.2000000000000000E-002  0.22653570846784429     
  0.97999999999999998        1.2000000000000000E-002  0.18808994324911588     
   1.0000000000000000        1.2000000000000000E-002  0.14999999999999999     
   0.0000000000000000        1.6000000000000000E-002  0.14999999999999999     
   2.0000000000000000E-002   1.6000000000000000E-002  0.18901487969183339     
   4.0000000000000001E-002   1.6000000000000000E-002  0.22811002946803960     
   5.9999999999999998E-002   1.6000000000000000E-002  0.26733869412930744     
   8.0000000000000002E-002   1.6000000000000000E-002  0.30670866153483883     
  0.10000000000000001        1.6000000000000000E-002  0.34617377833199592     
  0.12000000000000000        1.6000000000000000E-002  0.38563373460443257     
  0.14000000000000001        1.6000000000000000E-002  0.42493955993537802     
  0.16000000000000000        1.6000000000000000E-002  0.46390239586072290     
  0.17999999999999999        1.6000000000000000E-002  0.50230361557777847     
  0.20000000000000001        1.6000000000000000E-002  0.53990494062660377     
  0.22000000000000000        1.6000000000000000E-002  0.57645771718303906     
  0.23999999999999999        1.6000000000000000E-002  0.61171091393798904     
  0.26000000000000001        1.6000000000000000E-002  0.64541768664931787     
  0.28000000000000003        1.6000000000000000E-002  0.67734053806603656     
  0.29999999999999999        1.6000000000000000E-002  0.70725520858967350     
  0.32000000000000001        1.6000000000000000E-002  0.73495348455556408     
  0.34000000000000002        1.6000000000000000E-002  0.76024512571620428     
  0.35999999999999999        1.6000000000000000E-002  0.78295910554414849     
  0.38000000000000000        1.6000000000000000E-002  0.80294433758667627     
  0.40000000000000002        1.6000000000000000E-002  0.82007003528143196     
  0.41999999999999998        1.6000000000000000E-002  0.83422582583601479     
  0.44000000000000000        1.6000000000000000E-002  0.84532171358297681     
  0.46000000000000002        1.6000000000000000E-002  0.85328796594097622     
  0.47999999999999998        1.6000000000000000E-002  0.85807497616510986     
  0.50000000000000000        1.6000000000000000E-002  0.85965314131615189     
  0.52000000000000002        1.6000000000000000E-002  0.85801278083819643     
  0.54000000000000004        1.6000000000000000E-002  0.85316411012762694     
  0.56000000000000005        1.6000000000000000E-002  0.84513727371752867     
  0.57999999999999996        1.6000000000000000E-002  0.83398243335405853     
  0.59999999999999998        1.6000000000000000E-002  0.81976989645343290     
  0.62000000000000000        1.6000000000000000E-002  0.80259025936278816     
  0.64000000000000001        1.6000000000000000E-002  0.78255452671805226     
  0.66000000000000003        1.6000000000000000E-002  0.75979415231647252     
  0.68000000000000005        1.6000000000000000E-002  0.73446092781892691     
  0.70000000000000007        1.6000000000000000E-002  0.70672662313088164     
  0.71999999999999997        1.6000000000000000E-002  0.67678225690926153     
  0.73999999999999999        1.6000000000000000E-002  0.64483684861467117     
  0.76000000000000001        1.6000000000000000E-002  0.61111547749606543     
  0.78000000000000003        1.6000000000000000E-002  0.57585645335164526     
  0.80000000000000004        1.6000000000000000E-002  0.53930739589818544     
  0.82000000000000006        1.6000000000000000E-002  0.50172003443151569     
  0.83999999999999997        1.6000000000000000E-002  0.46334359144661003     
  0.85999999999999999        1.6000000000000000E-002  0.42441672148841175     
  0.88000000000000000        1.6000000000000000E-002  0.38515816170492234     
  0.90000000000000002        1.6000000000000000E-002  0.34575653610641366     
  0.92000000000000004        1.6000000000000000E-002  0.30636015825534446     
  0.94000000000000006        1.6000000000000000E-002  0.26706819434827128     
  0.95999999999999996        1.6000000000000000E-002  0.22792513232684120     
  0.97999999999999998        1.6000000000000000E-002  0.18892101269131084     
   1.0000000000000000        1.6000000000000000E-002  0.14999999999999999     
   0.0000000000000000        2.0000000000000000E-002  0.14999999999999999     
   2.0000000000000000E-002   2.0000000000000000E-002  0.18881197353401691     
   4.0000000000000001E-002   2.0000000000000000E-002  0.22760365645225233     
   5.9999999999999998E-002   2.0000000000000000E-002  0.26634470206890887     
   8.0000000000000002E-002   2.0000000000000000E-002  0.30498634847952583     
  0.10000000000000001        2.0000000000000000E-002  0.34345576358461116     
  0.12000000000000000        2.0000000000000000E-002  0.38165337721495823     
  0.14000000000000001        2.0000000000000000E-002  0.41945295510635772     
  0.16000000000000000        2.0000000000000000E-002  0.45670387251485534     
  0.17999999999999999        2.0000000000000000E-002  0.49323493758876619     
  0.20000000000000001        2.0000000000000000E-002  0.52885913486377545     
  0.22000000000000000        2.0000000000000000E-002  0.56337875156250272     
  0.23999999999999999        2.0000000000000000E-002  0.59659047169917545     
  0.26000000000000001        2.0000000000000000E-002  0.62829014761196733     
  0.28000000000000003        2.0000000000000000E-002  0.65827706962102428     
  0.29999999999999999        2.0000000000000000E-002  0.68635764478557992     
  0.32000000000000001        2.0000000000000000E-002  0.71234846356972548     
  0.34000000000000002        2.0000000000000000E-002  0.73607878025528783     
  0.35999999999999999        2.0000000000000000E-002  0.75739246239475855     
  0.38000000000000000        2.0000000000000000E-002  0.77614948021928987     
  0.40000000000000002        2.0000000000000000E-002  0.79222701230708292     
  0.41999999999999998        2.0000000000000000E-002  0.80552024209744089     
  0.44000000000000000        2.0000000000000000E-002  0.81594291351394121     
  0.46000000000000002        2.0000000000000000E-002  0.82342770492353845     
  0.47999999999999998        2.0000000000000000E-002  0.82792647023139243     
  0.50000000000000000        2.0000000000000000E-002  0.82941038494587382     
  0.52000000000000002        2.0000000000000000E-002  0.82787002402332766     
  0.54000000000000004        2.0000000000000000E-002  0.82331538741929478     
  0.56000000000000005        2.0000000000000000E-002  0.81577587854442857     
  0.57999999999999996        2.0000000000000000E-002  0.80530023015225216     
  0.59999999999999998        2.0000000000000000E-002  0.79195636143989545     
  0.62000000000000000        2.0000000000000000E-002  0.77583113922618474     
  0.64000000000000001        2.0000000000000000E-002  0.75703000499881412     
  0.66000000000000003        2.0000000000000000E-002  0.73567641859951993     
  0.68000000000000005        2.0000000000000000E-002  0.71191105882853012     
  0.70000000000000007        2.0000000000000000E-002  0.68589071215850050     
  0.71999999999999997        2.0000000000000000E-002  0.65778677439123290     
  0.73999999999999999        2.0000000000000000E-002  0.62778328837216213     
  0.76000000000000001        2.0000000000000000E-002  0.59607444632884088     
  0.78000000000000003        2.0000000000000000E-002  0.56286150116879707     
  0.80000000000000004        2.0000000000000000E-002  0.52834906079046828     
  0.82000000000000006        2.0000000000000000E-002  0.49274078690136808     
  0.83999999999999997        2.0000000000000000E-002  0.45623458825925312     
  0.85999999999999999        2.0000000000000000E-002  0.41901748929840227     
  0.88000000000000000        2.0000000000000000E-002  0.38126046711855055     
  0.90000000000000002        2.0000000000000000E-002  0.34311367548006189     
  0.92000000000000004        2.0000000000000000E-002  0.30470259777893771     
  0.94000000000000006        2.0000000000000000E-002  0.26612576403017313     
  0.95999999999999996        2.0000000000000000E-002  0.22745468724959858     
  0.97999999999999998        2.0000000000000000E-002  0.18873656596129984     
   1.0000000000000000        2.0000000000000000E-002  0.14999999999999999     
   0.0000000000000000        2.4000000000000000E-002  0.14999999999999999     
   2.0000000000000000E-002   2.4000000000000000E-002  0.18814005487928598     
   4.0000000000000001E-002   2.4000000000000000E-002  0.22621291789309889     
   5.9999999999999998E-002   2.4000000000000000E-002  0.26414670705099647     
   8.0000000000000002E-002   2.4000000000000000E-002  0.30186069670710297     
  0.10000000000000001        2.4000000000000000E-002  0.33926212118596683     
  0.12000000000000000        2.4000000000000000E-002  0.37624418142496641     
  0.14000000000000001        2.4000000000000000E-002  0.41268532208496667     
  0.16000000000000000        2.4000000000000000E-002  0.44844969944282809     
  0.17999999999999999        2.4000000000000000E-002  0.48338865949348653     
  0.20000000000000001        2.4000000000000000E-002  0.51734299173461751     
  0.22000000000000000        2.4000000000000000E-002  0.55014570966283205     
  0.23999999999999999        2.4000000000000000E-002  0.58162512340107997     
  0.26000000000000001        2.4000000000000000E-002  0.61160800230951817     
  0.28000000000000003        2.4000000000000000E-002  0.63992266668771125     
  0.29999999999999999        2.4000000000000000E-002  0.66640189077257317     
  0.32000000000000001        2.4000000000000000E-002  0.69088553945613440     
  0.34000000000000002        2.4000000000000000E-002  0.71322289572833697     
  0.35999999999999999        2.4000000000000000E-002  0.73327466354784421     
  0.38000000000000000        2.4000000000000000E-002  0.75091465148265935     
  0.40000000000000002        2.4000000000000000E-002  0.76603115654381182     
  0.41999999999999998        2.4000000000000000E-002  0.77852807602863749     
  0.44000000000000000        2.4000000000000000E-002  0.78832577890658284     
  0.46000000000000002        2.4000000000000000E-002  0.79536176832379213     
  0.47999999999999998        2.4000000000000000E-002  0.79959116408102704     
  0.50000000000000000        2.4000000000000000E-002  0.80098702922322507     
  0.52000000000000002        2.4000000000000000E-002  0.79954055879315855     
  0.54000000000000004        2.4000000000000000E-002  0.79526114184007557     
  0.56000000000000005        2.4000000000000000E-002  0.78817630032907016     
  0.57999999999999996        2.4000000000000000E-002  0.77833150099652915     
  0.59999999999999998        2.4000000000000000E-002  0.76578982874841561     
  0.62000000000000000        2.4000000000000000E-002  0.75063150323115435     
  0.64000000000000001        2.4000000000000000E-002  0.73295321411438985     
  0.66000000000000003        2.4000000000000000E-002  0.71286724590918304     
  0.68000000000000005        2.4000000000000000E-002  0.69050036043494267     
  0.70000000000000007        2.4000000000000000E-002  0.66599240512134283     
  0.71999999999999997        2.4000000000000000E-002  0.63949461910402838     
  0.73999999999999999        2.4000000000000000E-002  0.61116761755799243     
  0.76000000000000001        2.4000000000000000E-002  0.58117904893054029     
  0.78000000000000003        2.4000000000000000E-002  0.54970094056325769     
  0.80000000000000004        2.4000000000000000E-002  0.51690677613542146     
  0.82000000000000006        2.4000000000000000E-002  0.48296838324208047     
  0.83999999999999997        2.4000000000000000E-002  0.44805274998281075     
  0.85999999999999999        2.4000000000000000E-002  0.41231893289589672     
  0.88000000000000000        2.4000000000000000E-002  0.37591526016873217     
  0.90000000000000002        2.4000000000000000E-002  0.33897706674658579     
  0.92000000000000004        2.4000000000000000E-002  0.30162521245109175     
  0.94000000000000006        2.4000000000000000E-002  0.26396561962281323     
  0.95999999999999996        2.4000000000000000E-002  0.22609001235379864     
  0.97999999999999998        2.4000000000000000E-002  0.18807793759520408     
   1.0000000000000000        2.4000000000000000E-002  0.14999999999999999     
   0.0000000000000000        2.8000000000000001E-002  0.14999999999999999     
   2.0000000000000000E-002   2.8000000000000001E-002  0.18722453537309611     
   4.0000000000000001E-002   2.8000000000000001E-002  0.22435751879557336     
   5.9999999999999998E-002   2.8000000000000001E-002  0.26130496230829808     
   8.0000000000000002E-002   2.8000000000000001E-002  0.29796823134675254     
  0.10000000000000001        2.8000000000000001E-002  0.33424225384917250     
  0.12000000000000000        2.8000000000000001E-002  0.37001428961791238     
  0.14000000000000001        2.8000000000000001E-002  0.40516333620594724     
  0.16000000000000000        2.8000000000000001E-002  0.43956018420608023     
  0.17999999999999999        2.8000000000000001E-002  0.47306808068253836     
  0.20000000000000001        2.8000000000000001E-002  0.50554391927790221     
  0.22000000000000000        2.8000000000000001E-002  0.53683985062759332     
  0.23999999999999999        2.8000000000000001E-002  0.56680519607376101     
  0.26000000000000001        2.8000000000000001E-002  0.59528854878719739     
  0.28000000000000003        2.8000000000000001E-002  0.62213995614840101     
  0.29999999999999999        2.8000000000000001E-002  0.64721309245567393     
  0.32000000000000001        2.8000000000000001E-002  0.67036734893125682     
  0.34000000000000002        2.8000000000000001E-002  0.69146978635435208     
  0.35999999999999999        2.8000000000000001E-002  0.71039691284004869     
  0.38000000000000000        2.8000000000000001E-002  0.72703626425496581     
  0.40000000000000002        2.8000000000000001E-002  0.74128777694711367     