 variables= "x","t","u"
 zone i=          21  j=         101  datapacking=point
   0.0000000000000000        0.0000000000000000       0.14999999999999999     
   5.0000000000000003E-002   0.0000000000000000       0.15649691079283740     
  0.10000000000000001        0.0000000000000000       0.30913725197988923     
  0.15000000000000002        0.0000000000000000       0.45415949180019977     
  0.20000000000000001        0.0000000000000000       0.58798983215500444     
  0.25000000000000000        0.0000000000000000       0.70733027808498106     
  0.30000000000000004        0.0000000000000000       0.80923991060212686     
  0.35000000000000003        0.0000000000000000       0.89120736006143542     
  0.40000000000000002        0.0000000000000000       0.95121269410355802     
  0.45000000000000001        0.0000000000000000       0.98777719505745942     
  0.50000000000000000        0.0000000000000000       0.99999980013336820     
  0.55000000000000004        0.0000000000000000       0.98757930640657221     
  0.60000000000000009        0.0000000000000000       0.95082179339233419     
  0.65000000000000002        0.0000000000000000       0.89063308029664889     
  0.70000000000000007        0.0000000000000000       0.80849640381959009     
  0.75000000000000000        0.0000000000000000       0.70643586659945878     
  0.80000000000000004        0.0000000000000000       0.58696655704150991     
  0.85000000000000009        0.0000000000000000       0.45303256973349687     
  0.90000000000000002        0.0000000000000000       0.30793445381736151     
  0.95000000000000007        0.0000000000000000       0.15524787721436786     
   1.0000000000000000        0.0000000000000000       0.14999999999999999     
   0.0000000000000000        1.0000000000000000E-003  0.14999999999999999     
   5.0000000000000003E-002   1.0000000000000000E-003  0.19013467501797329     
  0.10000000000000001        1.0000000000000000E-003  0.31436376059878640     
  0.15000000000000002        1.0000000000000000E-003  0.45165911772684247     
  0.20000000000000001        1.0000000000000000E-003  0.58270353967150512     
  0.25000000000000000        1.0000000000000000E-003  0.70053223040741974     
  0.30000000000000004        1.0000000000000000E-003  0.80136580194943097     
  0.35000000000000003        1.0000000000000000E-003  0.88251410185970292     
  0.40000000000000002        1.0000000000000000E-003  0.94192925626564261     
  0.45000000000000001        1.0000000000000000E-003  0.97813581607679423     
  0.50000000000000000        1.0000000000000000E-003  0.99023892843628369     
  0.55000000000000004        1.0000000000000000E-003  0.97793986155306201     
  0.60000000000000009        1.0000000000000000E-003  0.94154218253606448     
  0.65000000000000002        1.0000000000000000E-003  0.88194547637839316     
  0.70000000000000007        1.0000000000000000E-003  0.80062976042508216     
  0.75000000000000000        1.0000000000000000E-003  0.69964743598550116     
  0.80000000000000004        1.0000000000000000E-003  0.58169403501102601     
  0.85000000000000009        1.0000000000000000E-003  0.45055932896034129     
  0.90000000000000002        1.0000000000000000E-003  0.31324152097676738     
  0.95000000000000007        1.0000000000000000E-003  0.18919138089170823     
   1.0000000000000000        1.0000000000000000E-003  0.14999999999999999     
   0.0000000000000000        2.0000000000000000E-003  0.14999999999999999     
   5.0000000000000003E-002   2.0000000000000000E-003  0.21043063007584489     
  0.10000000000000001        2.0000000000000000E-003  0.32160114779636895     
  0.15000000000000002        2.0000000000000000E-003  0.45086513351084889     
  0.20000000000000001        2.0000000000000000E-003  0.57814415868534474     
  0.25000000000000000        2.0000000000000000E-003  0.69402473139444087     
  0.30000000000000004        2.0000000000000000E-003  0.79363655657108922     
  0.35000000000000003        2.0000000000000000E-003  0.87392526830188366     
  0.40000000000000002        2.0000000000000000E-003  0.93274189613813008     
  0.45000000000000001        2.0000000000000000E-003  0.96859012365559460     
  0.50000000000000000        2.0000000000000000E-003  0.98057412012005918     
  0.55000000000000004        2.0000000000000000E-003  0.96839609579396291     
  0.60000000000000009        2.0000000000000000E-003  0.93235865707011911     
  0.65000000000000002        2.0000000000000000E-003  0.87336240468141246     
  0.70000000000000007        2.0000000000000000E-003  0.79290847305025336     
  0.75000000000000000        2.0000000000000000E-003  0.69315132298202220     
  0.80000000000000004        2.0000000000000000E-003  0.57715389040509302     
  0.85000000000000009        2.0000000000000000E-003  0.44980609631333174     
  0.90000000000000002        2.0000000000000000E-003  0.32057522060404658     
  0.95000000000000007        2.0000000000000000E-003  0.20967859396295935     
   1.0000000000000000        2.0000000000000000E-003  0.14999999999999999     
   0.0000000000000000        3.0000000000000001E-003  0.14999999999999999     
   5.0000000000000003E-002   3.0000000000000001E-003  0.22324443577604797     
  0.10000000000000001        3.0000000000000001E-003  0.32852338580260376     
  0.15000000000000002        3.0000000000000001E-003  0.45110793084474698     
  0.20000000000000001        3.0000000000000001E-003  0.57429946922163466     
  0.25000000000000000        3.0000000000000001E-003  0.68787928393924802     
  0.30000000000000004        3.0000000000000001E-003  0.78609548001887963     
  0.35000000000000003        3.0000000000000001E-003  0.86545898471798843     
  0.40000000000000002        3.0000000000000001E-003  0.92365678045735844     
  0.45000000000000001        3.0000000000000001E-003  0.95914178699479913     
  0.50000000000000000        3.0000000000000001E-003  0.97100595188025141     
  0.55000000000000004        3.0000000000000001E-003  0.95894969616618364     
  0.60000000000000009        3.0000000000000001E-003  0.92327744138266687     
  0.65000000000000002        3.0000000000000001E-003  0.86490214738052051     
  0.70000000000000007        3.0000000000000001E-003  0.78537621012614267     
  0.75000000000000000        3.0000000000000001E-003  0.68701961556148905     
  0.80000000000000004        3.0000000000000001E-003  0.57333375244550211     
  0.85000000000000009        3.0000000000000001E-003  0.45009754443053790     
  0.90000000000000002        3.0000000000000001E-003  0.32758995670858926     
  0.95000000000000007        3.0000000000000001E-003  0.22261920924799725     
   1.0000000000000000        3.0000000000000001E-003  0.14999999999999999     
   0.0000000000000000        4.0000000000000001E-003  0.14999999999999999     
   5.0000000000000003E-002   4.0000000000000001E-003  0.23166926245388056     
  0.10000000000000001        4.0000000000000001E-003  0.33440059160234292     
  0.15000000000000002        4.0000000000000001E-003  0.45182493525015288     
  0.20000000000000001        4.0000000000000001E-003  0.57104178991147725     
  0.25000000000000000        4.0000000000000001E-003  0.68211444629740847     
  0.30000000000000004        4.0000000000000001E-003  0.77877500857874093     
  0.35000000000000003        4.0000000000000001E-003  0.85713439225972698     
  0.40000000000000002        4.0000000000000001E-003  0.91468229479505880     
  0.45000000000000001        4.0000000000000001E-003  0.94979398317464103     
  0.50000000000000000        4.0000000000000001E-003  0.96153616200382852     
  0.55000000000000004        4.0000000000000001E-003  0.94960386614195846     
  0.60000000000000009        4.0000000000000001E-003  0.91430699521952574     
  0.65000000000000002        4.0000000000000001E-003  0.85658400888924069     
  0.70000000000000007        4.0000000000000001E-003  0.77806567633075463     
  0.75000000000000000        4.0000000000000001E-003  0.68127100928379858     
  0.80000000000000004        4.0000000000000001E-003  0.57010482654261663     
  0.85000000000000009        4.0000000000000001E-003  0.45086632904422075     
  0.90000000000000002        4.0000000000000001E-003  0.33354979308003202     
  0.95000000000000007        4.0000000000000001E-003  0.23113284804445000     
   1.0000000000000000        4.0000000000000001E-003  0.14999999999999999     
   0.0000000000000000        5.0000000000000001E-003  0.14999999999999999     
   5.0000000000000003E-002   5.0000000000000001E-003  0.23739865979972721     
  0.10000000000000001        5.0000000000000001E-003  0.33912081296407121     
  0.15000000000000002        5.0000000000000001E-003  0.45264351953273596     
  0.20000000000000001        5.0000000000000001E-003  0.56821268680785819     
  0.25000000000000000        5.0000000000000001E-003  0.67670909632393306     
  0.30000000000000004        5.0000000000000001E-003  0.77169213090631950     
  0.35000000000000003        5.0000000000000001E-003  0.84896797130765234     
  0.40000000000000002        5.0000000000000001E-003  0.90582775932879855     
  0.45000000000000001        5.0000000000000001E-003  0.94055120868429343     
  0.50000000000000000        5.0000000000000001E-003  0.95216772181391995     
  0.55000000000000004        5.0000000000000001E-003  0.94036313446877429     
  0.60000000000000009        5.0000000000000001E-003  0.90545671794066740     
  0.65000000000000002        5.0000000000000001E-003  0.84842460821541577     
  0.70000000000000007        5.0000000000000001E-003  0.77099399680560132     
  0.75000000000000000        5.0000000000000001E-003  0.67588418658290383     
  0.80000000000000004        5.0000000000000001E-003  0.56730731960796876     
  0.85000000000000009        5.0000000000000001E-003  0.45173668529641414     
  0.90000000000000002        5.0000000000000001E-003  0.33834194161534281     
  0.95000000000000007        5.0000000000000001E-003  0.23692756927254838     
   1.0000000000000000        5.0000000000000001E-003  0.14999999999999999     
   0.0000000000000000        6.0000000000000001E-003  0.14999999999999999     
   5.0000000000000003E-002   6.0000000000000001E-003  0.24139658847456408     
  0.10000000000000001        6.0000000000000001E-003  0.34278799863622039     
  0.15000000000000002        6.0000000000000001E-003  0.45334737297824984     
  0.20000000000000001        6.0000000000000001E-003  0.56566638093406363     
  0.25000000000000000        6.0000000000000001E-003  0.67161962420539201     
  0.30000000000000004        6.0000000000000001E-003  0.76484918718036732     
  0.35000000000000003        6.0000000000000001E-003  0.84097139084046291     
  0.40000000000000002        6.0000000000000001E-003  0.89710214333258453     
  0.45000000000000001        6.0000000000000001E-003  0.93141885583417061     
  0.50000000000000000        6.0000000000000001E-003  0.94290468621044898     
  0.55000000000000004        6.0000000000000001E-003  0.93123292757804976     
  0.60000000000000009        6.0000000000000001E-003  0.89673565171883918     
  0.65000000000000002        6.0000000000000001E-003  0.84043571030505870     
  0.70000000000000007        6.0000000000000001E-003  0.76416352411538491     
  0.75000000000000000        6.0000000000000001E-003  0.67081515620016952     
  0.80000000000000004        6.0000000000000001E-003  0.56479421232811822     
  0.85000000000000009        6.0000000000000001E-003  0.45249050025644066     
  0.90000000000000002        6.0000000000000001E-003  0.34207132558482911     
  0.95000000000000007        6.0000000000000001E-003  0.24097561083693336     
   1.0000000000000000        6.0000000000000001E-003  0.14999999999999999     
   0.0000000000000000        7.0000000000000001E-003  0.14999999999999999     
   5.0000000000000003E-002   7.0000000000000001E-003  0.24423415430163284     
  0.10000000000000001        7.0000000000000001E-003  0.34556222317093777     
  0.15000000000000002        7.0000000000000001E-003  0.45382585337703613     
  0.20000000000000001        7.0000000000000001E-003  0.56328568458010009     
  0.25000000000000000        7.0000000000000001E-003  0.66679377489825542     
  0.30000000000000004        7.0000000000000001E-003  0.75823724194856956     
  0.35000000000000003        7.0000000000000001E-003  0.83315084591938959     
  0.40000000000000002        7.0000000000000001E-003  0.88851308758752601     
  0.45000000000000001        7.0000000000000001E-003  0.92240268989301621     
  0.50000000000000000        7.0000000000000001E-003  0.93375187734562004     
  0.55000000000000004        7.0000000000000001E-003  0.92221904263615162     
  0.60000000000000009        7.0000000000000001E-003  0.88815149557193696     
  0.65000000000000002        7.0000000000000001E-003  0.83262355814046751     
  0.70000000000000007        7.0000000000000001E-003  0.75756524029751959     
  0.75000000000000000        7.0000000000000001E-003  0.66601121290990839     
  0.80000000000000004        7.0000000000000001E-003  0.56244732729664471     
  0.85000000000000009        7.0000000000000001E-003  0.45301622910469752     
  0.90000000000000002        7.0000000000000001E-003  0.34489945303339220     
  0.95000000000000007        7.0000000000000001E-003  0.24385299558349460     
   1.0000000000000000        7.0000000000000001E-003  0.14999999999999999     
   0.0000000000000000        8.0000000000000002E-003  0.14999999999999999     
   5.0000000000000003E-002   8.0000000000000002E-003  0.24626352603159696     
  0.10000000000000001        8.0000000000000002E-003  0.34760048138810434     
  0.15000000000000002        8.0000000000000002E-003  0.45403308228752809     
  0.20000000000000001        8.0000000000000002E-003  0.56098375546318135     
  0.25000000000000000        8.0000000000000002E-003  0.66217960584653823     
  0.30000000000000004        8.0000000000000002E-003  0.75184003360060148     
  0.35000000000000003        8.0000000000000002E-003  0.82550744048474500     
  0.40000000000000002        8.0000000000000002E-003  0.88006633378227672     
  0.45000000000000001        8.0000000000000002E-003  0.91350834256668512     
  0.50000000000000000        8.0000000000000002E-003  0.92471448303526516     
  0.55000000000000004        8.0000000000000002E-003  0.91332713772795882     
  0.60000000000000009        8.0000000000000002E-003  0.87971003015017057     
  0.65000000000000002        8.0000000000000002E-003  0.82498925901796683     
  0.70000000000000007        8.0000000000000002E-003  0.75118274007951025     
  0.75000000000000000        8.0000000000000002E-003  0.66141997059603042     
  0.80000000000000004        8.0000000000000002E-003  0.56017909532785537     
  0.85000000000000009        8.0000000000000002E-003  0.45326764013770693     
  0.90000000000000002        8.0000000000000002E-003  0.34698471253008212     
  0.95000000000000007        8.0000000000000002E-003  0.24591493366418191     
   1.0000000000000000        8.0000000000000002E-003  0.14999999999999999     
   0.0000000000000000        9.0000000000000011E-003  0.14999999999999999     
   5.0000000000000003E-002   9.0000000000000011E-003  0.24771044493322353     
  0.10000000000000001        9.0000000000000011E-003  0.34903818712051360     
  0.15000000000000002        9.0000000000000011E-003  0.45396019363882661     
  0.20000000000000001        9.0000000000000011E-003  0.55869997853538556     
  0.25000000000000000        9.0000000000000011E-003  0.65773032111245577     
  0.30000000000000004        9.0000000000000011E-003  0.74563745185431984     
  0.35000000000000003        9.0000000000000011E-003  0.81803812823047983     
  0.40000000000000002        9.0000000000000011E-003  0.87176552397097695     
  0.45000000000000001        9.0000000000000011E-003  0.90474089518322354     
  0.50000000000000000        9.0000000000000011E-003  0.91579764793681695     
  0.55000000000000004        9.0000000000000011E-003  0.90456231294428990     
  0.60000000000000009        9.0000000000000011E-003  0.87141491599259124     
  0.65000000000000002        9.0000000000000011E-003  0.81752973364694470     
  0.70000000000000007        9.0000000000000011E-003  0.74499573787374196     
  0.75000000000000000        9.0000000000000011E-003  0.65699423658611888     
  0.80000000000000004        9.0000000000000011E-003  0.55792840027371648     
  0.85000000000000009        9.0000000000000011E-003  0.45323582632596737     
  0.90000000000000002        9.0000000000000011E-003  0.34846371784886920     
  0.95000000000000007        9.0000000000000011E-003  0.24738912266873866     
   1.0000000000000000        9.0000000000000011E-003  0.14999999999999999     
   0.0000000000000000        1.0000000000000000E-002  0.14999999999999999     
   5.0000000000000003E-002   1.0000000000000000E-002  0.24872498663804340     
  0.10000000000000001        1.0000000000000000E-002  0.34998632753813680     
  0.15000000000000002        1.0000000000000000E-002  0.45361801948228786     
  0.20000000000000001        1.0000000000000000E-002  0.55639427603509206     
  0.25000000000000000        1.0000000000000000E-002  0.65340627633716220     
  0.30000000000000004        1.0000000000000000E-002  0.73960816470099966     
  0.35000000000000003        1.0000000000000000E-002  0.81073683518153616     
  0.40000000000000002        1.0000000000000000E-002  0.86361227303971311     
  0.45000000000000001        1.0000000000000000E-002  0.89610458356973000     
  0.50000000000000000        1.0000000000000000E-002  0.90700611506601259     
  0.55000000000000004        1.0000000000000000E-002  0.89592881438528482     
  0.60000000000000009        1.0000000000000000E-002  0.86326776730704402     
  0.65000000000000002        1.0000000000000000E-002  0.81023884851493544     
  0.70000000000000007        1.0000000000000000E-002  0.73898271689280259     
  0.75000000000000000        1.0000000000000000E-002  0.65269403281832206     
  0.80000000000000004        1.0000000000000000E-002  0.55565483932434878     
  0.85000000000000009        1.0000000000000000E-002  0.45293174345695614     
  0.90000000000000002        1.0000000000000000E-002  0.34944844041703527     
  0.95000000000000007        1.0000000000000000E-002  0.24842694379752933     
   1.0000000000000000        1.0000000000000000E-002  0.14999999999999999     
   0.0000000000000000        1.0999999999999999E-002  0.14999999999999999     
   5.0000000000000003E-002   1.0999999999999999E-002  0.24941032516182784     
  0.10000000000000001        1.0999999999999999E-002  0.35053399663311668     
  0.15000000000000002        1.0999999999999999E-002  0.45302684084185540     
  0.20000000000000001        1.0999999999999999E-002  0.55404173844951232     
  0.25000000000000000        1.0999999999999999E-002  0.64917529209322067     
  0.30000000000000004        1.0999999999999999E-002  0.73373138512707525     
  0.35000000000000003        1.0999999999999999E-002  0.80359552922611965     
  0.40000000000000002        1.0999999999999999E-002  0.85560640843662139     
  0.45000000000000001        1.0999999999999999E-002  0.88760262613939478     
  0.50000000000000000        1.0999999999999999E-002  0.89834395026633007     
  0.55000000000000004        1.0999999999999999E-002  0.88742986239405941     
  0.60000000000000009        1.0999999999999999E-002  0.85526839454372472     
  0.65000000000000002        1.0999999999999999E-002  0.80310849478509172     
  0.70000000000000007        1.0999999999999999E-002  0.73312271070184887     
  0.75000000000000000        1.0999999999999999E-002  0.64848691114122214     
  0.80000000000000004        1.0999999999999999E-002  0.55333330738784581     
  0.85000000000000009        1.0999999999999999E-002  0.45237587379321176     
  0.90000000000000002        1.0999999999999999E-002  0.35002876603921684     
  0.95000000000000007        1.0999999999999999E-002  0.24913247234067559     
   1.0000000000000000        1.0999999999999999E-002  0.14999999999999999     
   0.0000000000000000        1.2000000000000000E-002  0.14999999999999999     
   5.0000000000000003E-002   1.2000000000000000E-002  0.24983956999130524     
  0.10000000000000001        1.2000000000000000E-002  0.35075225205630417     
  0.15000000000000002        1.2000000000000000E-002  0.45221057267927162     
  0.20000000000000001        1.2000000000000000E-002  0.55162822289577895     
  0.25000000000000000        1.2000000000000000E-002  0.64501208422795342     
  0.30000000000000004        1.2000000000000000E-002  0.72798792589696049     
  0.35000000000000003        1.2000000000000000E-002  0.79660511949067969     
  0.40000000000000002        1.2000000000000000E-002  0.84774628874579916     
  0.45000000000000001        1.2000000000000000E-002  0.87923715877386310     
  0.50000000000000000        1.2000000000000000E-002  0.88981436038809814     
  0.55000000000000004        1.2000000000000000E-002  0.87906758730675383     
  0.60000000000000009        1.2000000000000000E-002  0.84741512650714446     
  0.65000000000000002        1.2000000000000000E-002  0.79612949561608515     
  0.70000000000000007        1.2000000000000000E-002  0.72739636680250885     
  0.75000000000000000        1.2000000000000000E-002  0.64434737824058264     
  0.80000000000000004        1.2000000000000000E-002  0.55094955742705765     
  0.85000000000000009        1.2000000000000000E-002  0.45159236171156242     
  0.90000000000000002        1.2000000000000000E-002  0.35027638579194337     
  0.95000000000000007        1.2000000000000000E-002  0.24957945925414049     
   1.0000000000000000        1.2000000000000000E-002  0.14999999999999999     
   0.0000000000000000        1.3000000000000001E-002  0.14999999999999999     
   5.0000000000000003E-002   1.3000000000000001E-002  0.25006594301739959     
  0.10000000000000001        1.3000000000000001E-002  0.35069781860003507     
  0.15000000000000002        1.3000000000000001E-002  0.45119361054199791     
  0.20000000000000001        1.3000000000000001E-002  0.54914699714077619     
  0.25000000000000000        1.3000000000000001E-002  0.64089731935204786     
  0.30000000000000004        1.3000000000000001E-002  0.72236072937355511     
  0.35000000000000003        1.3000000000000001E-002  0.78975614808654926     
  0.40000000000000002        1.3000000000000001E-002  0.84002913828921710     
  0.45000000000000001        1.3000000000000001E-002  0.87100925235043081     
  0.50000000000000000        1.3000000000000001E-002  0.88141960035306244     
  0.55000000000000004        1.3000000000000001E-002  0.87084304826810455     
  0.60000000000000009        1.3000000000000001E-002  0.83970514858652356     
  0.65000000000000002        1.3000000000000001E-002  0.78929230410339069     
  0.70000000000000007        1.3000000000000001E-002  0.72178648083852037     
  0.75000000000000000        1.3000000000000001E-002  0.64025594266367913     
  0.80000000000000004        1.3000000000000001E-002  0.54849681554657936     
  0.85000000000000009        1.3000000000000001E-002  0.45060583372828383     
  0.90000000000000002        1.3000000000000001E-002  0.35024853195179179     
  0.95000000000000007        1.3000000000000001E-002  0.24982159557492067     
   1.0000000000000000        1.3000000000000001E-002  0.14999999999999999     
   0.0000000000000000        1.4000000000000000E-002  0.14999999999999999     
   5.0000000000000003E-002   1.4000000000000000E-002  0.25012912368766949     
  0.10000000000000001        1.4000000000000000E-002  0.35041619905101379     
  0.15000000000000002        1.4000000000000000E-002  0.44999922554180477     
  0.20000000000000001        1.4000000000000000E-002  0.54659628953211226     
  0.25000000000000000        1.4000000000000000E-002  0.63681658450076084     
  0.30000000000000004        1.4000000000000000E-002  0.71683504234119155     
  0.35000000000000003        1.4000000000000000E-002  0.78303928260071365     
  0.40000000000000002        1.4000000000000000E-002  0.83245135914564716     
  0.45000000000000001        1.4000000000000000E-002  0.86291898783165621     
  0.50000000000000000        1.4000000000000000E-002  0.87316095522072845     
  0.55000000000000004        1.4000000000000000E-002  0.86275630977896589     
  0.60000000000000009        1.4000000000000000E-002  0.83213481811435686     
  0.65000000000000002        1.4000000000000000E-002  0.78258750026933177     
  0.70000000000000007        1.4000000000000000E-002  0.71627817283915873     
  0.75000000000000000        1.4000000000000000E-002  0.63619807541058215     
  0.80000000000000004        1.4000000000000000E-002  0.54597330984926229     
  0.85000000000000009        1.4000000000000000E-002  0.44943978004465052     
  0.90000000000000002        1.4000000000000000E-002  0.34999111603095517     
  0.95000000000000007        1.4000000000000000E-002  0.24989891221516819     
   1.0000000000000000        1.4000000000000000E-002  0.14999999999999999     
   0.0000000000000000        1.4999999999999999E-002  0.14999999999999999     
   5.0000000000000003E-002   1.4999999999999999E-002  0.25005932336336162     
  0.10000000000000001        1.4999999999999999E-002  0.34994414591595363     
  0.15000000000000002        1.4999999999999999E-002  0.44864883563089480     
  0.20000000000000001        1.4999999999999999E-002  0.54397755056856090     
  0.25000000000000000        1.4999999999999999E-002  0.63275941809734826     
  0.30000000000000004        1.4999999999999999E-002  0.71139836961760372     
  0.35000000000000003        1.4999999999999999E-002  0.77644563932888877     
  0.40000000000000002        1.4999999999999999E-002  0.82500880086061257     
  0.45000000000000001        1.4999999999999999E-002  0.85496556667974966     
  0.50000000000000000        1.4999999999999999E-002  0.86503877961911901     
  0.55000000000000004        1.4999999999999999E-002  0.85480655355446533     
  0.60000000000000009        1.4999999999999999E-002  0.82469993692855947     
  0.65000000000000002        1.4999999999999999E-002  0.77600611733816105     
  0.70000000000000007        1.4999999999999999E-002  0.71085884041983527     
  0.75000000000000000        1.4999999999999999E-002  0.63216323245320050     
  0.80000000000000004        1.4999999999999999E-002  0.54338051709311175     
  0.85000000000000009        1.4999999999999999E-002  0.44811581984264687     
  0.90000000000000002        1.4999999999999999E-002  0.34954122208717286     
  0.95000000000000007        1.4999999999999999E-002  0.24984188947224295     
   1.0000000000000000        1.4999999999999999E-002  0.14999999999999999     
   0.0000000000000000        1.6000000000000000E-002  0.14999999999999999     
   5.0000000000000003E-002   1.6000000000000000E-002  0.24987997457267178     
  0.10000000000000001        1.6000000000000000E-002  0.34931157716861905     
  0.15000000000000002        1.6000000000000000E-002  0.44716175789622947     
  0.20000000000000001        1.6000000000000000E-002  0.54129424428717654     
  0.25000000000000000        1.6000000000000000E-002  0.62871846497466310     
  0.30000000000000004        1.6000000000000000E-002  0.70604030285543562     
  0.35000000000000003        1.6000000000000000E-002  0.76996697383078860     
  0.40000000000000002        1.6000000000000000E-002  0.81769698106089084     
  0.45000000000000001        1.6000000000000000E-002  0.84714743879168863     
  0.50000000000000000        1.6000000000000000E-002  0.85705257680233438     
  0.55000000000000004        1.6000000000000000E-002  0.84699220777101836     
  0.60000000000000009        1.6000000000000000E-002  0.81739597428108446     
  0.65000000000000002        1.6000000000000000E-002  0.76953983417246408     
  0.70000000000000007        1.6000000000000000E-002  0.70551798614960004     
  0.75000000000000000        1.6000000000000000E-002  0.62814400245114788     
  0.80000000000000004        1.6000000000000000E-002  0.54072194374756455     
  0.85000000000000009        1.6000000000000000E-002  0.44665345168011328     
  0.90000000000000002        1.6000000000000000E-002  0.34892903920632795     
  0.95000000000000007        1.6000000000000000E-002  0.24967416953043006     
   1.0000000000000000        1.6000000000000000E-002  0.14999999999999999     
   0.0000000000000000        1.7000000000000001E-002  0.14999999999999999     
   5.0000000000000003E-002   1.7000000000000001E-002  0.24960955172769025     
  0.10000000000000001        1.7000000000000001E-002  0.34854304634292677     
  0.15000000000000002        1.7000000000000001E-002  0.44555521389393266     
  0.20000000000000001        1.7000000000000001E-002  0.53855102143919620     
  0.25000000000000000        1.7000000000000001E-002  0.62468877186450977     
  0.30000000000000004        1.7000000000000001E-002  0.70075228951443957     
  0.35000000000000003        1.7000000000000001E-002  0.76359577381187937     
  0.40000000000000002        1.7000000000000001E-002  0.81051125806204660     
  0.45000000000000001        1.7000000000000001E-002  0.83946243481510185     
  0.50000000000000000        1.7000000000000001E-002  0.84920110162669005     
  0.55000000000000004        1.7000000000000001E-002  0.83931108049916792     
  0.60000000000000009        1.7000000000000001E-002  0.81021824119202013     
  0.65000000000000002        1.7000000000000001E-002  0.76318106916221173     
  0.70000000000000007        1.7000000000000001E-002  0.70024698460677137     
  0.75000000000000000        1.7000000000000001E-002  0.62413539619425962     
  0.80000000000000004        1.7000000000000001E-002  0.53800229213952722     
  0.85000000000000009        1.7000000000000001E-002  0.44507005906470154     
  0.90000000000000002        1.7000000000000001E-002  0.34817934445134657     
  0.95000000000000007        1.7000000000000001E-002  0.24941439295053816     
   1.0000000000000000        1.7000000000000001E-002  0.14999999999999999     